LAMMPS (31 Mar 2017)
  using 2 OpenMP thread(s) per MPI task
echo            screen
  orthogonal box = (-59.5 -59.5 -59.5) to (59.5 59.5 59.5)
  1 by 2 by 7 MPI processor grid
  reading atoms ...
  158944 atoms
  scanning bonds ...
  4 = max bonds/atom
  scanning angles ...
  15 = max angles/atom
  scanning dihedrals ...
  44 = max dihedrals/atom
  scanning impropers ...
  4 = max impropers/atom
  reading bonds ...
  106440 bonds
  reading angles ...
  55775 angles
  reading dihedrals ...
  6081 dihedrals
  reading impropers ...
  373 impropers
  4 = max # of 1-2 neighbors
  9 = max # of 1-3 neighbors
  19 = max # of 1-4 neighbors
  21 = max # of special neighbors
  orthogonal box = (-59.5 -59.5 -59.5) to (59.5 59.5 59.5)
  158944 atoms before read
  158944 atoms in snapshot
  0 atoms purged
  158944 atoms replaced
  0 atoms trimmed
  0 atoms added
  158944 atoms after read
PPPM initialization ...
WARNING: Using 12-bit tables for long-range coulomb (../kspace.cpp:321)
  G vector (1/distance) = 0.2772
  grid = 128 128 128
  stencil order = 5
  estimated absolute RMS force accuracy = 0.000451194
  estimated relative force accuracy = 1.35876e-06
  using single precision FFTs
  3d grid and FFT values/proc = 249210 163840
Neighbor list info ...
  update every 1 steps, delay 5 steps, check yes
  max neighbors/atom: 2000, page size: 100000
  master list distance cutoff = 14
  ghost atom cutoff = 14
  binsize = 7, bins = 17 17 17
  1 neighbor lists, perpetual/occasional/extra = 1 0 0
  (1) pair lj/charmmfsw/coul/long, perpetual
      attributes: half, newton off
      pair build: half/bin/newtoff
      stencil: half/bin/3d/newtoff
      bin: standard
WARNING: No fixes defined, atoms won't move (../verlet.cpp:55)
PPPM initialization ...
WARNING: Using 12-bit tables for long-range coulomb (../kspace.cpp:321)
  G vector (1/distance) = 0.2772
  grid = 128 128 128
  stencil order = 5
  estimated absolute RMS force accuracy = 0.000451194
  estimated relative force accuracy = 1.35876e-06
  using single precision FFTs
  3d grid and FFT values/proc = 249210 163840
Per MPI rank memory allocation (min/avg/max) = 162.9 | 164.9 | 166.5 Mbytes
Step Time Xlo Xhi Ylo Yhi Zlo Zhi TotEng PotEng KinEng Temp Press E_bond E_angle E_dihed E_impro E_vdwl E_coul E_long Temp Volume 
       0            0        -59.5         59.5        -59.5         59.5        -59.5         59.5   -558197.02   -701823.09    143626.07       303.15   -806.95008    25620.186    14861.293    1089.2972    12.799179    105845.42    2005772.7   -2855024.7       303.15      1685159 
    1000         1000        -59.5         59.5        -59.5         59.5        -59.5         59.5   -558197.02   -701823.09    143626.07       303.15   -806.95008    25620.186    14861.293    1089.2972    12.799179    105845.42    2005772.7   -2855024.7       303.15      1685159 
    2000         2000        -59.5         59.5        -59.5         59.5        -59.5         59.5   -558197.02   -701823.09    143626.07       303.15   -806.95008    25620.186    14861.293    1089.2972    12.799179    105845.42    2005772.7   -2855024.7       303.15      1685159 
    3000         3000        -59.5         59.5        -59.5         59.5        -59.5         59.5   -558197.02   -701823.09    143626.07       303.15   -806.95008    25620.186    14861.293    1089.2972    12.799179    105845.42    2005772.7   -2855024.7       303.15      1685159 
    4000         4000        -59.5         59.5        -59.5         59.5        -59.5         59.5   -558197.02   -701823.09    143626.07       303.15   -806.95008    25620.186    14861.293    1089.2972    12.799179    105845.42    2005772.7   -2855024.7       303.15      1685159 
    5000         5000        -59.5         59.5        -59.5         59.5        -59.5         59.5   -558197.02   -701823.09    143626.07       303.15   -806.95008    25620.186    14861.293    1089.2972    12.799179    105845.42    2005772.7   -2855024.7       303.15      1685159 
    6000         6000        -59.5         59.5        -59.5         59.5        -59.5         59.5   -558197.02   -701823.09    143626.07       303.15   -806.95008    25620.186    14861.293    1089.2972    12.799179    105845.42    2005772.7   -2855024.7       303.15      1685159 
    7000         7000        -59.5         59.5        -59.5         59.5        -59.5         59.5   -558197.02   -701823.09    143626.07       303.15   -806.95008    25620.186    14861.293    1089.2972    12.799179    105845.42    2005772.7   -2855024.7       303.15      1685159 
    8000         8000        -59.5         59.5        -59.5         59.5        -59.5         59.5   -558197.02   -701823.09    143626.07       303.15   -806.95008    25620.186    14861.293    1089.2972    12.799179    105845.42    2005772.7   -2855024.7       303.15      1685159 
    9000         9000        -59.5         59.5        -59.5         59.5        -59.5         59.5   -558197.02   -701823.09    143626.07       303.15   -806.95008    25620.186    14861.293    1089.2972    12.799179    105845.42    2005772.7   -2855024.7       303.15      1685159 
   10000        10000        -59.5         59.5        -59.5         59.5        -59.5         59.5   -558197.02   -701823.09    143626.07       303.15   -806.95008    25620.186    14861.293    1089.2972    12.799179    105845.42    2005772.7   -2855024.7       303.15      1685159 
   11000        11000        -59.5         59.5        -59.5         59.5        -59.5         59.5   -558197.02   -701823.09    143626.07       303.15   -806.95008    25620.186    14861.293    1089.2972    12.799179    105845.42    2005772.7   -2855024.7       303.15      1685159 
   12000        12000        -59.5         59.5        -59.5         59.5        -59.5         59.5   -558197.02   -701823.09    143626.07       303.15   -806.95008    25620.186    14861.293    1089.2972    12.799179    105845.42    2005772.7   -2855024.7       303.15      1685159 
   13000        13000        -59.5         59.5        -59.5         59.5        -59.5         59.5   -558197.02   -701823.09    143626.07       303.15   -806.95008    25620.186    14861.293    1089.2972    12.799179    105845.42    2005772.7   -2855024.7       303.15      1685159 
   14000        14000        -59.5         59.5        -59.5         59.5        -59.5         59.5   -558197.02   -701823.09    143626.07       303.15   -806.95008    25620.186    14861.293    1089.2972    12.799179    105845.42    2005772.7   -2855024.7       303.15      1685159 
   15000        15000        -59.5         59.5        -59.5         59.5        -59.5         59.5   -558197.02   -701823.09    143626.07       303.15   -806.95008    25620.186    14861.293    1089.2972    12.799179    105845.42    2005772.7   -2855024.7       303.15      1685159 
   16000        16000        -59.5         59.5        -59.5         59.5        -59.5         59.5   -558197.02   -701823.09    143626.07       303.15   -806.95008    25620.186    14861.293    1089.2972    12.799179    105845.42    2005772.7   -2855024.7       303.15      1685159 
   17000        17000        -59.5         59.5        -59.5         59.5        -59.5         59.5   -558197.02   -701823.09    143626.07       303.15   -806.95008    25620.186    14861.293    1089.2972    12.799179    105845.42    2005772.7   -2855024.7       303.15      1685159 
   18000        18000        -59.5         59.5        -59.5         59.5        -59.5         59.5   -558197.02   -701823.09    143626.07       303.15   -806.95008    25620.186    14861.293    1089.2972    12.799179    105845.42    2005772.7   -2855024.7       303.15      1685159 
   19000        19000        -59.5         59.5        -59.5         59.5        -59.5         59.5   -558197.02   -701823.09    143626.07       303.15   -806.95008    25620.186    14861.293    1089.2972    12.799179    105845.42    2005772.7   -2855024.7       303.15      1685159 
   20000        20000        -59.5         59.5        -59.5         59.5        -59.5         59.5   -558197.02   -701823.09    143626.07       303.15   -806.95008    25620.186    14861.293    1089.2972    12.799179    105845.42    2005772.7   -2855024.7       303.15      1685159 
Loop time of 3646.97 on 28 procs for 20000 steps with 158944 atoms

Performance: 0.474 ns/day, 50.652 hours/ns, 5.484 timesteps/s
98.0% CPU use with 14 MPI tasks x 2 OpenMP threads

MPI task timing breakdown:
Section |  min time  |  avg time  |  max time  |%varavg| %total
---------------------------------------------------------------
Pair    | 2592.8     | 2709.6     | 2820.5     | 134.0 | 74.30
Bond    | 8.4899     | 10.087     | 15.397     |  69.2 |  0.28
Kspace  | 804.39     | 905.36     | 1028.4     | 240.7 | 24.82
Neigh   | 0          | 0          | 0          |   0.0 |  0.00
Comm    | 10.484     | 10.658     | 10.91      |   4.2 |  0.29
Output  | 0.12063    | 0.12068    | 0.12113    |   0.0 |  0.00
Modify  | 0.0079525  | 0.014213   | 0.018596   |   2.0 |  0.00
Other   |            | 11.16      |            |       |  0.31

Nlocal:    11353.1 ave 11724 max 11136 min
Histogram: 3 1 2 2 2 1 1 1 0 1
Nghost:    43092.9 ave 43583 max 42727 min
Histogram: 5 0 1 1 1 1 1 1 1 2
Neighs:    8.59605e+06 ave 8.84235e+06 max 8.29886e+06 min
Histogram: 2 1 1 0 2 2 1 1 1 3

Total # of neighbors = 120344687
Ave neighs/atom = 757.151
Ave special neighs/atom = 2.10541
Neighbor list builds = 0
Dangerous builds = 0
Total wall time: 1:00:50
